LAMMPS (17 Feb 2022)
units 		metal
dimension 	3
boundary 	p p p

atom_style 	spin

# necessary for the serial algorithm (sametag)
atom_modify 	map array
read_data 	Norm_randXY_8x8x32.data
Reading data file ...
  orthogonal box = (0 0 0) to (28.32 28.32 113.28)
  1 by 1 by 1 MPI processor grid
  reading atoms ...
  8192 atoms
  read_data CPU = 0.019 seconds

mass		1 58.93

pair_style 	hybrid/overlay eam/alloy spin/exchange 4.0
pair_coeff 	* * eam/alloy Co_PurjaPun_2012.eam.alloy Co
pair_coeff 	* * spin/exchange exchange 4.0 0.0446928 0.003496 1.4885

neighbor 	1.0 bin
neigh_modify 	every 1 check no delay 0

fix 		1 all precession/spin zeeman 0.0 0.0 0.0 1.0
fix 		2 all langevin/spin 0.0 0.0 21

fix 		3 all nve/spin lattice moving
timestep	0.0001

# define outputs and computes

compute 	out_mag    all spin
compute 	out_pe     all pe
compute 	out_ke     all ke
compute 	out_temp   all temp

variable 	magz      equal c_out_mag[3]
variable 	magnorm   equal c_out_mag[4]
variable 	emag      equal c_out_mag[5]
variable 	tmag      equal c_out_mag[6]

thermo          20
thermo_style    custom step time v_magnorm pe v_emag v_tmag temp etotal
thermo_modify   format float %20.15g

compute 	outsp all property/atom spx spy spz sp fmx fmy fmz
dump 		1 all custom 1 dump.lammpstrj type x y z c_outsp[1] c_outsp[2] c_outsp[3] c_outsp[4] c_outsp[5] c_outsp[6] c_outsp[7]

run 		100

CITE-CITE-CITE-CITE-CITE-CITE-CITE-CITE-CITE-CITE-CITE-CITE-CITE

Your simulation uses code contributions which should be cited:

- fix nve/spin command:

@article{tranchida2018massively,
title={Massively parallel symplectic algorithm for coupled magnetic spin dynamics and molecular dynamics},
author={Tranchida, J and Plimpton, SJ and Thibaudeau, P and Thompson, AP},
journal={Journal of Computational Physics},
volume={372},
pages={406-425},
year={2018},
publisher={Elsevier}
doi={10.1016/j.jcp.2018.06.042}
}

CITE-CITE-CITE-CITE-CITE-CITE-CITE-CITE-CITE-CITE-CITE-CITE-CITE

Neighbor list info ...
  update every 1 steps, delay 0 steps, check no
  max neighbors/atom: 2000, page size: 100000
  master list distance cutoff = 7.499539
  ghost atom cutoff = 7.499539
  binsize = 3.7497695, bins = 8 8 31
  2 neighbor lists, perpetual/occasional/extra = 2 0 0
  (1) pair eam/alloy, perpetual, half/full from (2)
      attributes: half, newton on
      pair build: halffull/newton
      stencil: none
      bin: none
  (2) pair spin/exchange, perpetual
      attributes: full, newton on
      pair build: full/bin/atomonly
      stencil: full/bin/3d
      bin: standard
Per MPI rank memory allocation (min/avg/max) = 96.47 | 96.47 | 96.47 Mbytes
Step Time v_magnorm PotEng v_emag v_tmag Temp TotEng 
       0                    0    0.980832325249104                 -nan    -46476.9168424702     1569.77593716914                    0                 -nan 
ERROR on proc 0: Non-numeric atom coords - simulation unstable (../domain.cpp:559)
Last command: run 		100
