LAMMPS (17 Feb 2022)
# start a spin-lattice simulation from a data file
units 		metal
atom_style 	spin

dimension 	3
boundary 	p p p

# necessary for the serial algorithm (sametag)
atom_modify 	map array

read_restart	restart_hcp_cobalt.equil
Reading restart file ...
  restart file = 17 Feb 2022, LAMMPS = 17 Feb 2022
  restoring atom style spin from restart
  orthogonal box = (0 0 0) to (12.5355 21.712123 20.470386)
  1 by 1 by 1 MPI processor grid
  restoring pair style spin/exchange from restart
  500 atoms
  read_restart CPU = 0.001 seconds

# setting mass, mag. moments, and interactions

mass		1 58.93

pair_style 	hybrid/overlay eam/alloy spin/exchange 4.0
pair_coeff 	* * eam/alloy Co_PurjaPun_2012.eam.alloy Co
pair_coeff 	* * spin/exchange exchange 4.0 0.3593 1.135028015e-05 1.064568567

neighbor 	1.0 bin
neigh_modify 	every 1 check no delay 0

fix 		1 all precession/spin zeeman 0.0 0.0 0.0 1.0
fix 		2 all langevin/spin 0.0 0.0 21

fix 		3 all nve/spin lattice moving
timestep	0.0001

# define outputs

compute 	out_mag    all spin
compute 	out_pe     all pe
compute 	out_ke     all ke
compute 	out_temp   all temp

variable 	magz      equal c_out_mag[3]
variable 	magnorm   equal c_out_mag[4]
variable 	emag      equal c_out_mag[5]
variable 	tmag      equal c_out_mag[6]

thermo          20
thermo_style    custom step time v_magnorm pe v_emag v_tmag temp etotal
thermo_modify   format float %20.15g

compute 	outsp all property/atom spx spy spz sp fmx fmy fmz
dump 		100 all custom 1 dump.lammpstrj type x y z c_outsp[1] c_outsp[2] c_outsp[3] c_outsp[4] c_outsp[5] c_outsp[6] c_outsp[7]

run 		100

CITE-CITE-CITE-CITE-CITE-CITE-CITE-CITE-CITE-CITE-CITE-CITE-CITE

Your simulation uses code contributions which should be cited:

- fix nve/spin command:

@article{tranchida2018massively,
title={Massively parallel symplectic algorithm for coupled magnetic spin dynamics and molecular dynamics},
author={Tranchida, J and Plimpton, SJ and Thibaudeau, P and Thompson, AP},
journal={Journal of Computational Physics},
volume={372},
pages={406-425},
year={2018},
publisher={Elsevier}
doi={10.1016/j.jcp.2018.06.042}
}

CITE-CITE-CITE-CITE-CITE-CITE-CITE-CITE-CITE-CITE-CITE-CITE-CITE

Neighbor list info ...
  update every 1 steps, delay 0 steps, check no
  max neighbors/atom: 2000, page size: 100000
  master list distance cutoff = 7.499539
  ghost atom cutoff = 7.499539
  binsize = 3.7497695, bins = 4 6 6
  2 neighbor lists, perpetual/occasional/extra = 2 0 0
  (1) pair eam/alloy, perpetual, half/full from (2)
      attributes: half, newton on
      pair build: halffull/newton
      stencil: none
      bin: none
  (2) pair spin/exchange, perpetual
      attributes: full, newton on
      pair build: full/bin/atomonly
      stencil: full/bin/3d
      bin: standard
Per MPI rank memory allocation (min/avg/max) = 7.422 | 7.422 | 7.422 Mbytes
Step Time v_magnorm PotEng v_emag v_tmag Temp TotEng 
    1000                  0.1   0.0932573090686804    -2200.23517830814    -5.23522607260093     2607.73882430677                    0    -2200.23517830814 
    1020                0.102   0.0932573327666311    -2200.24443710429    -5.24450891847559     2636.64683510926    0.143537605623455    -2200.23517881212 
    1040                0.104   0.0932573434321669    -2200.27039820051    -5.27081834824709     2645.79663253052     0.54601147009147    -2200.23518001713 
    1060                0.106   0.0932573171769147    -2200.30856540091    -5.31040546412085       2626.813855822     1.13772114875935    -2200.23518146258 
    1080                0.108   0.0932572956096157    -2200.35356779552    -5.35891821497003     2584.62328456935     1.83540593007361    -2200.23518262203 
    1100                 0.11   0.0932573077828853     -2200.4010495057    -5.41307270625146     2539.22946288669     2.57153670607602    -2200.23518329916 
Loop time of 0.983188 on 1 procs for 100 steps with 500 atoms

Performance: 0.879 ns/day, 27.311 hours/ns, 101.710 timesteps/s
99.6% CPU use with 1 MPI tasks x no OpenMP threads

MPI task timing breakdown:
Section |  min time  |  avg time  |  max time  |%varavg| %total
---------------------------------------------------------------
Pair    | 0.27376    | 0.27376    | 0.27376    |   0.0 | 27.84
Neigh   | 0.28742    | 0.28742    | 0.28742    |   0.0 | 29.23
Comm    | 0.011249   | 0.011249   | 0.011249   |   0.0 |  1.14
Output  | 0.14472    | 0.14472    | 0.14472    |   0.0 | 14.72
Modify  | 0.26484    | 0.26484    | 0.26484    |   0.0 | 26.94
Other   |            | 0.001194   |            |       |  0.12

Nlocal:            500 ave         500 max         500 min
Histogram: 1 0 0 0 0 0 0 0 0 0
Nghost:           2534 ave        2534 max        2534 min
Histogram: 1 0 0 0 0 0 0 0 0 0
Neighs:          36500 ave       36500 max       36500 min
Histogram: 1 0 0 0 0 0 0 0 0 0
FullNghs:        73000 ave       73000 max       73000 min
Histogram: 1 0 0 0 0 0 0 0 0 0

Total # of neighbors = 73000
Ave neighs/atom = 146
Neighbor list builds = 100
Dangerous builds not checked
Total wall time: 0:00:01
