LAMMPS (17 Feb 2022)
# bcc iron in a 3d periodic box

clear
units 		metal
atom_style 	spin

dimension 	3
boundary 	p p p

# necessary for the serial algorithm (sametag)
atom_modify 	map array

lattice 	bcc 2.8665
Lattice spacing in x,y,z = 2.8665 2.8665 2.8665
region 		box block 0.0 12.0 0.0 12.0 0.0 12.0
create_box 	1 box
Created orthogonal box = (0 0 0) to (34.398 34.398 34.398)
  1 by 1 by 1 MPI processor grid
create_atoms 	1 box
Created 3456 atoms
  using lattice units in orthogonal box = (0 0 0) to (34.398 34.398 34.398)
  create_atoms CPU = 0.001 seconds

# setting mass, mag. moments, and interactions for bcc iron

mass		1 55.845
set 		group all spin 2.2 -1.0 0.0 0.0
Setting atom values ...
  3456 settings made for spin
velocity 	all create 100 4928459 rot yes dist gaussian

pair_style 	hybrid/overlay eam/alloy spin/exchange 3.5 spin/dipole/cut 8.0
pair_coeff 	* * eam/alloy Fe_Mishin2006.eam.alloy Fe
pair_coeff 	* * spin/exchange exchange 3.4 0.02726 0.2171 1.841
pair_coeff      * * spin/dipole/cut 8.0

neighbor 	0.1 bin
neigh_modify 	every 10 check yes delay 20

fix 		1 all precession/spin cubic 0.001 0.0005 1.0 0.0 0.0 0.0 1.0 0.0 0.0 0.0 1.0
fix_modify 	1 energy yes
fix 		2 all langevin/spin 0.0 0.0 21

fix 		3 all nve/spin lattice moving
timestep	0.0001

# compute and output options

compute 	out_mag    all spin
compute 	out_pe     all pe
compute 	out_ke     all ke
compute 	out_temp   all temp

variable 	magx      equal c_out_mag[1]
variable 	magy      equal c_out_mag[2]
variable 	magz      equal c_out_mag[3]
variable 	magnorm   equal c_out_mag[4]
variable 	emag      equal c_out_mag[5]
variable 	tmag      equal c_out_mag[6]

thermo_style    custom step time v_magx v_magy v_magz v_magnorm v_tmag v_emag pe etotal
thermo          50

compute 	outsp all property/atom spx spy spz sp fmx fmy fmz
dump 		1 all custom 100 dump_iron.lammpstrj type x y z c_outsp[1] c_outsp[2] c_outsp[3]

run 		100

CITE-CITE-CITE-CITE-CITE-CITE-CITE-CITE-CITE-CITE-CITE-CITE-CITE

Your simulation uses code contributions which should be cited:

- fix nve/spin command:

@article{tranchida2018massively,
title={Massively parallel symplectic algorithm for coupled magnetic spin dynamics and molecular dynamics},
author={Tranchida, J and Plimpton, SJ and Thibaudeau, P and Thompson, AP},
journal={Journal of Computational Physics},
volume={372},
pages={406-425},
year={2018},
publisher={Elsevier}
doi={10.1016/j.jcp.2018.06.042}
}

CITE-CITE-CITE-CITE-CITE-CITE-CITE-CITE-CITE-CITE-CITE-CITE-CITE

Neighbor list info ...
  update every 10 steps, delay 20 steps, check yes
  max neighbors/atom: 2000, page size: 100000
  master list distance cutoff = 8.1
  ghost atom cutoff = 8.1
  binsize = 4.05, bins = 9 9 9
  3 neighbor lists, perpetual/occasional/extra = 3 0 0
  (1) pair eam/alloy, perpetual, half/full from (2)
      attributes: half, newton on
      pair build: halffull/newton
      stencil: none
      bin: none
  (2) pair spin/exchange, perpetual
      attributes: full, newton on
      pair build: full/bin/atomonly
      stencil: full/bin/3d
      bin: standard
  (3) pair spin/dipole/cut, perpetual, copy from (2)
      attributes: full, newton on
      pair build: copy
      stencil: none
      bin: none
Per MPI rank memory allocation (min/avg/max) = 13.4 | 13.4 | 13.4 Mbytes
Step Time v_magx v_magy v_magz v_magnorm v_tmag v_emag PotEng TotEng 
       0            0           -1            0            0            1 9.8888744e-36   -384.18755   -15175.868   -15131.207 
      50        0.005           -1 -2.7689756e-10 -2.1801239e-10            1 6.867592e-09   -384.17896   -15174.244   -15131.207 
     100         0.01           -1 -2.0963471e-09 -1.7310178e-09            1 1.0015266e-08   -384.15433   -15169.655   -15131.207 
Loop time of 7.71721 on 1 procs for 100 steps with 3456 atoms

Performance: 0.112 ns/day, 214.367 hours/ns, 12.958 timesteps/s
100.0% CPU use with 1 MPI tasks x no OpenMP threads

MPI task timing breakdown:
Section |  min time  |  avg time  |  max time  |%varavg| %total
---------------------------------------------------------------
Pair    | 3.4663     | 3.4663     | 3.4663     |   0.0 | 44.92
Neigh   | 0          | 0          | 0          |   0.0 |  0.00
Comm    | 0.023348   | 0.023348   | 0.023348   |   0.0 |  0.30
Output  | 0.0060842  | 0.0060842  | 0.0060842  |   0.0 |  0.08
Modify  | 4.2187     | 4.2187     | 4.2187     |   0.0 | 54.67
Other   |            | 0.002749   |            |       |  0.04

Nlocal:           3456 ave        3456 max        3456 min
Histogram: 1 0 0 0 0 0 0 0 0 0
Nghost:           7289 ave        7289 max        7289 min
Histogram: 1 0 0 0 0 0 0 0 0 0
Neighs:         290304 ave      290304 max      290304 min
Histogram: 1 0 0 0 0 0 0 0 0 0
FullNghs:       580608 ave      580608 max      580608 min
Histogram: 1 0 0 0 0 0 0 0 0 0

Total # of neighbors = 580608
Ave neighs/atom = 168
Neighbor list builds = 0
Dangerous builds = 0
Total wall time: 0:00:07
