LAMMPS (17 Feb 2022)
# bfo in a 3d periodic box

units 		metal
dimension 	3
boundary 	p p f
atom_style 	spin

# necessary for the serial algorithm (sametag)
atom_modify 	map array

lattice 	sc 3.96
Lattice spacing in x,y,z = 3.96 3.96 3.96
region 		box block 0.0 34.0 0.0 34.0 0.0 1.0
create_box 	1 box
Created orthogonal box = (0 0 0) to (134.64 134.64 3.96)
  1 by 1 by 1 MPI processor grid
create_atoms 	1 box
Created 1156 atoms
  using lattice units in orthogonal box = (0 0 0) to (134.64 134.64 3.96)
  create_atoms CPU = 0.002 seconds

# setting mass, mag. moments, and interactions for bcc iron

mass		1 1.0
set 		group all spin/random 11 2.50
Setting atom values ...
  1156 settings made for spin/random

pair_style 	hybrid/overlay spin/exchange 6.0 spin/magelec 4.5 spin/dmi 4.5
pair_coeff 	* * spin/exchange exchange 6.0 -0.01575 0.0 1.965
#pair_coeff 	* * spin/magelec magelec 4.5 0.000109 1.0 1.0 1.0
pair_coeff 	* * spin/magelec magelec 4.5 0.00109 1.0 1.0 1.0
pair_coeff 	* * spin/dmi dmi 4.5 0.00005 1.0 1.0 1.0

neighbor 	0.1 bin
neigh_modify 	every 10 check yes delay 20

fix 		1 all precession/spin anisotropy 0.0000033 0.0 0.0 1.0
fix_modify	1 energy yes

timestep	0.0001

compute 	out_mag    all spin
compute 	out_pe     all pe
compute 	out_ke     all ke
compute 	out_temp   all temp

variable 	magz      equal c_out_mag[3]
variable 	magnorm   equal c_out_mag[4]
variable 	emag      equal c_out_mag[5]
variable 	tmag      equal c_out_mag[6]

thermo          50
thermo_style    custom step time v_magnorm v_emag v_tmag temp etotal
thermo_modify   format float %20.15g

compute 	outsp all property/atom spx spy spz sp fmx fmy fmz
dump 		1 all custom 50 dump.lammpstrj type x y z c_outsp[1] c_outsp[2] c_outsp[3] c_outsp[4] c_outsp[5] c_outsp[6] c_outsp[7]

min_style	spin/lbfgs
# min_modify 	line spin_cubic discrete_factor 10.0
min_modify	norm max
minimize        1.0e-15 1.0e-10 1000 100

CITE-CITE-CITE-CITE-CITE-CITE-CITE-CITE-CITE-CITE-CITE-CITE-CITE

Your simulation uses code contributions which should be cited:

- min_style spin/lbfgs command:

@article{ivanov2019fast,
title={Fast and Robust Algorithm for the Minimisation of the Energy of Spin Systems},
author={Ivanov, A. V and Uzdin, V. M. and J{'o}nsson, H.},
journal={arXiv preprint arXiv:1904.02669},
year={2019}
}

CITE-CITE-CITE-CITE-CITE-CITE-CITE-CITE-CITE-CITE-CITE-CITE-CITE

WARNING: Using 'neigh_modify every 1 delay 0 check yes' setting during minimization (../min.cpp:187)
WARNING: Line search incompatible gneb (../min_spin_lbfgs.cpp:108)
WARNING: Using spin pair style without nve/spin or neb/spin (../pair_spin.cpp:84)
WARNING: Using spin pair style without nve/spin or neb/spin (../pair_spin.cpp:84)
WARNING: Using spin pair style without nve/spin or neb/spin (../pair_spin.cpp:84)
  generated 0 of 0 mixed pair_coeff terms from geometric mixing rule
Neighbor list info ...
  update every 1 steps, delay 0 steps, check yes
  max neighbors/atom: 2000, page size: 100000
  master list distance cutoff = 6.1
  ghost atom cutoff = 6.1
  binsize = 3.05, bins = 45 45 2
  3 neighbor lists, perpetual/occasional/extra = 3 0 0
  (1) pair spin/exchange, perpetual
      attributes: full, newton on
      pair build: full/bin/atomonly
      stencil: full/bin/3d
      bin: standard
  (2) pair spin/magelec, perpetual, copy from (1)
      attributes: full, newton on
      pair build: copy
      stencil: none
      bin: none
  (3) pair spin/dmi, perpetual, copy from (1)
      attributes: full, newton on
      pair build: copy
      stencil: none
      bin: none
Per MPI rank memory allocation (min/avg/max) = 7.748 | 7.748 | 7.748 Mbytes
Step Time v_magnorm v_emag v_tmag Temp TotEng 
       0                    0   0.0205636053306396   -0.109624389251325     1537.40479337332                    0   -0.109252321944233 
      50                0.005 0.000800557938106774    -9.66467236451568    0.293526226015748                    0    -9.65918446070019 
     100                 0.01 0.000434178059532258    -9.82317091598689    0.136842093807963                    0    -9.81803976808405 
     150                0.015 9.48308310696741e-06    -9.85806292548772 0.000835157262992307                    0     -9.8531526745986 
     200                 0.02 9.37241776209025e-06    -9.85861191272506 7.69892421155207e-06                    0    -9.85364693446282 
     250                0.025 6.60794698056367e-07    -9.85861479066755 2.88792111678049e-08                    0    -9.85364764704454 
     300                 0.03 8.50448323316242e-09    -9.85861519670507 8.81272825492065e-12                    0    -9.85364764787525 
     301               0.0301 1.54689950759123e-09    -9.85861519719682 1.76237722700028e-13                    0    -9.85364764787528 
Loop time of 0.470654 on 1 procs for 301 steps with 1156 atoms

98.1% CPU use with 1 MPI tasks x no OpenMP threads

Minimization stats:
  Stopping criterion = energy tolerance
  Energy initial, next-to-last, final = 
    -0.109252321944233  -9.85364764787525  -9.85364764787528
  Force two-norm initial, final = 0 0
  Force max component initial, final = 0 0
  Final line search alpha, max atom move = 0 0
  Iterations, force evaluations = 301 301

MPI task timing breakdown:
Section |  min time  |  avg time  |  max time  |%varavg| %total
---------------------------------------------------------------
Pair    | 0.39105    | 0.39105    | 0.39105    |   0.0 | 83.09
Neigh   | 0          | 0          | 0          |   0.0 |  0.00
Comm    | 0.0029098  | 0.0029098  | 0.0029098  |   0.0 |  0.62
Output  | 0.028679   | 0.028679   | 0.028679   |   0.0 |  6.09
Modify  | 0.0033256  | 0.0033256  | 0.0033256  |   0.0 |  0.71
Other   |            | 0.04469    |            |       |  9.50

Nlocal:           1156 ave        1156 max        1156 min
Histogram: 1 0 0 0 0 0 0 0 0 0
Nghost:            213 ave         213 max         213 min
Histogram: 1 0 0 0 0 0 0 0 0 0
Neighs:              0 ave           0 max           0 min
Histogram: 1 0 0 0 0 0 0 0 0 0
FullNghs:         9248 ave        9248 max        9248 min
Histogram: 1 0 0 0 0 0 0 0 0 0

Total # of neighbors = 9248
Ave neighs/atom = 8
Neighbor list builds = 0
Dangerous builds = 0
Total wall time: 0:00:00
