ITEM: TIMESTEP
0
ITEM: NUMBER OF ATOMS
2
ITEM: BOX BOUNDS ff ff ff
0.0000000000000000e+00 6.0000000000000000e+00
0.0000000000000000e+00 3.0000000000000000e+00
0.0000000000000000e+00 3.0000000000000000e+00
ITEM: ATOMS type x y z c_outsp[1] c_outsp[2] c_outsp[3] fx fy fz
1 0 0 0 1 0 0 0 0 0
1 3 0 0 0 1 0 0 0 0
ITEM: TIMESTEP
10
ITEM: NUMBER OF ATOMS
2
ITEM: BOX BOUNDS ff ff ff
0.0000000000000000e+00 6.0000000000000000e+00
0.0000000000000000e+00 3.0000000000000000e+00
0.0000000000000000e+00 3.0000000000000000e+00
ITEM: ATOMS type x y z c_outsp[1] c_outsp[2] c_outsp[3] fx fy fz
1 0 0 0 0.997117 0.0036419 -0.0757864 0 0 0
1 3 0 0 0.00364191 0.997117 0.0757865 0 0 0
ITEM: TIMESTEP
20
ITEM: NUMBER OF ATOMS
2
ITEM: BOX BOUNDS ff ff ff
0.0000000000000000e+00 6.0000000000000000e+00
0.0000000000000000e+00 3.0000000000000000e+00
0.0000000000000000e+00 3.0000000000000000e+00
ITEM: ATOMS type x y z c_outsp[1] c_outsp[2] c_outsp[3] fx fy fz
1 0 0 0 0.988503 0.0130151 -0.15064 0 0 0
1 3 0 0 0.0130151 0.988503 0.15064 0 0 0
ITEM: TIMESTEP
30
ITEM: NUMBER OF ATOMS
2
ITEM: BOX BOUNDS ff ff ff
0.0000000000000000e+00 6.0000000000000000e+00
0.0000000000000000e+00 3.0000000000000000e+00
0.0000000000000000e+00 3.0000000000000000e+00
ITEM: ATOMS type x y z c_outsp[1] c_outsp[2] c_outsp[3] fx fy fz
1 0 0 0 0.974257 0.0280198 -0.223694 0 0 0
1 3 0 0 0.0280198 0.974256 0.223695 0 0 0
ITEM: TIMESTEP
40
ITEM: NUMBER OF ATOMS
2
ITEM: BOX BOUNDS ff ff ff
0.0000000000000000e+00 6.0000000000000000e+00
0.0000000000000000e+00 3.0000000000000000e+00
0.0000000000000000e+00 3.0000000000000000e+00
ITEM: ATOMS type x y z c_outsp[1] c_outsp[2] c_outsp[3] fx fy fz
1 0 0 0 0.954543 0.0484908 -0.294102 0 0 0
1 3 0 0 0.0484908 0.954543 0.294103 0 0 0
ITEM: TIMESTEP
50
ITEM: NUMBER OF ATOMS
2
ITEM: BOX BOUNDS ff ff ff
0.0000000000000000e+00 6.0000000000000000e+00
0.0000000000000000e+00 3.0000000000000000e+00
0.0000000000000000e+00 3.0000000000000000e+00
ITEM: ATOMS type x y z c_outsp[1] c_outsp[2] c_outsp[3] fx fy fz
1 0 0 0 0.929592 0.0741992 -0.361045 0 0 0
1 3 0 0 0.0741992 0.929592 0.361046 0 0 0
ITEM: TIMESTEP
60
ITEM: NUMBER OF ATOMS
2
ITEM: BOX BOUNDS ff ff ff
0.0000000000000000e+00 6.0000000000000000e+00
0.0000000000000000e+00 3.0000000000000000e+00
0.0000000000000000e+00 3.0000000000000000e+00
ITEM: ATOMS type x y z c_outsp[1] c_outsp[2] c_outsp[3] fx fy fz
1 0 0 0 0.899693 0.104854 -0.423743 0 0 0
1 3 0 0 0.104854 0.899693 0.423744 0 0 0
ITEM: TIMESTEP
70
ITEM: NUMBER OF ATOMS
2
ITEM: BOX BOUNDS ff ff ff
0.0000000000000000e+00 6.0000000000000000e+00
0.0000000000000000e+00 3.0000000000000000e+00
0.0000000000000000e+00 3.0000000000000000e+00
ITEM: ATOMS type x y z c_outsp[1] c_outsp[2] c_outsp[3] fx fy fz
1 0 0 0 0.865195 0.140108 -0.481463 0 0 0
1 3 0 0 0.140108 0.865195 0.481464 0 0 0
ITEM: TIMESTEP
80
ITEM: NUMBER OF ATOMS
2
ITEM: BOX BOUNDS ff ff ff
0.0000000000000000e+00 6.0000000000000000e+00
0.0000000000000000e+00 3.0000000000000000e+00
0.0000000000000000e+00 3.0000000000000000e+00
ITEM: ATOMS type x y z c_outsp[1] c_outsp[2] c_outsp[3] fx fy fz
1 0 0 0 0.826502 0.179557 -0.53353 0 0 0
1 3 0 0 0.179557 0.826501 0.533531 0 0 0
ITEM: TIMESTEP
90
ITEM: NUMBER OF ATOMS
2
ITEM: BOX BOUNDS ff ff ff
0.0000000000000000e+00 6.0000000000000000e+00
0.0000000000000000e+00 3.0000000000000000e+00
0.0000000000000000e+00 3.0000000000000000e+00
ITEM: ATOMS type x y z c_outsp[1] c_outsp[2] c_outsp[3] fx fy fz
1 0 0 0 0.784065 0.222748 -0.579332 0 0 0
1 3 0 0 0.222748 0.784064 0.579333 0 0 0
ITEM: TIMESTEP
100
ITEM: NUMBER OF ATOMS
2
ITEM: BOX BOUNDS ff ff ff
0.0000000000000000e+00 6.0000000000000000e+00
0.0000000000000000e+00 3.0000000000000000e+00
0.0000000000000000e+00 3.0000000000000000e+00
ITEM: ATOMS type x y z c_outsp[1] c_outsp[2] c_outsp[3] fx fy fz
1 0 0 0 0.738383 0.269184 -0.618328 0 0 0
1 3 0 0 0.269184 0.738382 0.61833 0 0 0
ITEM: TIMESTEP
110
ITEM: NUMBER OF ATOMS
2
ITEM: BOX BOUNDS ff ff ff
0.0000000000000000e+00 6.0000000000000000e+00
0.0000000000000000e+00 3.0000000000000000e+00
0.0000000000000000e+00 3.0000000000000000e+00
ITEM: ATOMS type x y z c_outsp[1] c_outsp[2] c_outsp[3] fx fy fz
1 0 0 0 0.689993 0.318328 -0.650059 0 0 0
1 3 0 0 0.318328 0.689992 0.65006 0 0 0
ITEM: TIMESTEP
120
ITEM: NUMBER OF ATOMS
2
ITEM: BOX BOUNDS ff ff ff
0.0000000000000000e+00 6.0000000000000000e+00
0.0000000000000000e+00 3.0000000000000000e+00
0.0000000000000000e+00 3.0000000000000000e+00
ITEM: ATOMS type x y z c_outsp[1] c_outsp[2] c_outsp[3] fx fy fz
1 0 0 0 0.639464 0.36961 -0.674147 0 0 0
1 3 0 0 0.36961 0.639462 0.674148 0 0 0
ITEM: TIMESTEP
130
ITEM: NUMBER OF ATOMS
2
ITEM: BOX BOUNDS ff ff ff
0.0000000000000000e+00 6.0000000000000000e+00
0.0000000000000000e+00 3.0000000000000000e+00
0.0000000000000000e+00 3.0000000000000000e+00
ITEM: ATOMS type x y z c_outsp[1] c_outsp[2] c_outsp[3] fx fy fz
1 0 0 0 0.587392 0.422435 -0.690304 0 0 0
1 3 0 0 0.422435 0.58739 0.690306 0 0 0
ITEM: TIMESTEP
140
ITEM: NUMBER OF ATOMS
2
ITEM: BOX BOUNDS ff ff ff
0.0000000000000000e+00 6.0000000000000000e+00
0.0000000000000000e+00 3.0000000000000000e+00
0.0000000000000000e+00 3.0000000000000000e+00
ITEM: ATOMS type x y z c_outsp[1] c_outsp[2] c_outsp[3] fx fy fz
1 0 0 0 0.534392 0.476186 -0.698335 0 0 0
1 3 0 0 0.476186 0.53439 0.698337 0 0 0
ITEM: TIMESTEP
150
ITEM: NUMBER OF ATOMS
2
ITEM: BOX BOUNDS ff ff ff
0.0000000000000000e+00 6.0000000000000000e+00
0.0000000000000000e+00 3.0000000000000000e+00
0.0000000000000000e+00 3.0000000000000000e+00
ITEM: ATOMS type x y z c_outsp[1] c_outsp[2] c_outsp[3] fx fy fz
1 0 0 0 0.481093 0.530236 -0.69814 0 0 0
1 3 0 0 0.530236 0.481091 0.698141 0 0 0
ITEM: TIMESTEP
160
ITEM: NUMBER OF ATOMS
2
ITEM: BOX BOUNDS ff ff ff
0.0000000000000000e+00 6.0000000000000000e+00
0.0000000000000000e+00 3.0000000000000000e+00
0.0000000000000000e+00 3.0000000000000000e+00
ITEM: ATOMS type x y z c_outsp[1] c_outsp[2] c_outsp[3] fx fy fz
1 0 0 0 0.428127 0.583952 -0.689715 0 0 0
1 3 0 0 0.583952 0.428125 0.689716 0 0 0
ITEM: TIMESTEP
170
ITEM: NUMBER OF ATOMS
2
ITEM: BOX BOUNDS ff ff ff
0.0000000000000000e+00 6.0000000000000000e+00
0.0000000000000000e+00 3.0000000000000000e+00
0.0000000000000000e+00 3.0000000000000000e+00
ITEM: ATOMS type x y z c_outsp[1] c_outsp[2] c_outsp[3] fx fy fz
1 0 0 0 0.376124 0.636705 -0.673155 0 0 0
1 3 0 0 0.636705 0.376122 0.673156 0 0 0
ITEM: TIMESTEP
180
ITEM: NUMBER OF ATOMS
2
ITEM: BOX BOUNDS ff ff ff
0.0000000000000000e+00 6.0000000000000000e+00
0.0000000000000000e+00 3.0000000000000000e+00
0.0000000000000000e+00 3.0000000000000000e+00
ITEM: ATOMS type x y z c_outsp[1] c_outsp[2] c_outsp[3] fx fy fz
1 0 0 0 0.325705 0.687874 -0.648649 0 0 0
1 3 0 0 0.687874 0.325702 0.64865 0 0 0
ITEM: TIMESTEP
190
ITEM: NUMBER OF ATOMS
2
ITEM: BOX BOUNDS ff ff ff
0.0000000000000000e+00 6.0000000000000000e+00
0.0000000000000000e+00 3.0000000000000000e+00
0.0000000000000000e+00 3.0000000000000000e+00
ITEM: ATOMS type x y z c_outsp[1] c_outsp[2] c_outsp[3] fx fy fz
1 0 0 0 0.277471 0.736857 -0.616484 0 0 0
1 3 0 0 0.736857 0.277468 0.616485 0 0 0
ITEM: TIMESTEP
200
ITEM: NUMBER OF ATOMS
2
ITEM: BOX BOUNDS ff ff ff
0.0000000000000000e+00 6.0000000000000000e+00
0.0000000000000000e+00 3.0000000000000000e+00
0.0000000000000000e+00 3.0000000000000000e+00
ITEM: ATOMS type x y z c_outsp[1] c_outsp[2] c_outsp[3] fx fy fz
1 0 0 0 0.232 0.783075 -0.577035 0 0 0
1 3 0 0 0.783075 0.231997 0.577036 0 0 0
ITEM: TIMESTEP
210
ITEM: NUMBER OF ATOMS
2
ITEM: BOX BOUNDS ff ff ff
0.0000000000000000e+00 6.0000000000000000e+00
0.0000000000000000e+00 3.0000000000000000e+00
0.0000000000000000e+00 3.0000000000000000e+00
ITEM: ATOMS type x y z c_outsp[1] c_outsp[2] c_outsp[3] fx fy fz
1 0 0 0 0.189839 0.825983 -0.530766 0 0 0
1 3 0 0 0.825983 0.189837 0.530767 0 0 0
ITEM: TIMESTEP
220
ITEM: NUMBER OF ATOMS
2
ITEM: BOX BOUNDS ff ff ff
0.0000000000000000e+00 6.0000000000000000e+00
0.0000000000000000e+00 3.0000000000000000e+00
0.0000000000000000e+00 3.0000000000000000e+00
ITEM: ATOMS type x y z c_outsp[1] c_outsp[2] c_outsp[3] fx fy fz
1 0 0 0 0.151497 0.865073 -0.478224 0 0 0
1 3 0 0 0.865073 0.151494 0.478225 0 0 0
ITEM: TIMESTEP
230
ITEM: NUMBER OF ATOMS
2
ITEM: BOX BOUNDS ff ff ff
0.0000000000000000e+00 6.0000000000000000e+00
0.0000000000000000e+00 3.0000000000000000e+00
0.0000000000000000e+00 3.0000000000000000e+00
ITEM: ATOMS type x y z c_outsp[1] c_outsp[2] c_outsp[3] fx fy fz
1 0 0 0 0.117436 0.89988 -0.42003 0 0 0
1 3 0 0 0.89988 0.117433 0.42003 0 0 0
ITEM: TIMESTEP
240
ITEM: NUMBER OF ATOMS
2
ITEM: BOX BOUNDS ff ff ff
0.0000000000000000e+00 6.0000000000000000e+00
0.0000000000000000e+00 3.0000000000000000e+00
0.0000000000000000e+00 3.0000000000000000e+00
ITEM: ATOMS type x y z c_outsp[1] c_outsp[2] c_outsp[3] fx fy fz
1 0 0 0 0.0880698 0.929991 -0.356875 0 0 0
1 3 0 0 0.929992 0.0880664 0.356875 0 0 0
ITEM: TIMESTEP
250
ITEM: NUMBER OF ATOMS
2
ITEM: BOX BOUNDS ff ff ff
0.0000000000000000e+00 6.0000000000000000e+00
0.0000000000000000e+00 3.0000000000000000e+00
0.0000000000000000e+00 3.0000000000000000e+00
ITEM: ATOMS type x y z c_outsp[1] c_outsp[2] c_outsp[3] fx fy fz
1 0 0 0 0.063757 0.955049 -0.28951 0 0 0
1 3 0 0 0.955049 0.0637535 0.289511 0 0 0
ITEM: TIMESTEP
260
ITEM: NUMBER OF ATOMS
2
ITEM: BOX BOUNDS ff ff ff
0.0000000000000000e+00 6.0000000000000000e+00
0.0000000000000000e+00 3.0000000000000000e+00
0.0000000000000000e+00 3.0000000000000000e+00
ITEM: ATOMS type x y z c_outsp[1] c_outsp[2] c_outsp[3] fx fy fz
1 0 0 0 0.0447959 0.974754 -0.21874 0 0 0
1 3 0 0 0.974755 0.0447924 0.21874 0 0 0
ITEM: TIMESTEP
270
ITEM: NUMBER OF ATOMS
2
ITEM: BOX BOUNDS ff ff ff
0.0000000000000000e+00 6.0000000000000000e+00
0.0000000000000000e+00 3.0000000000000000e+00
0.0000000000000000e+00 3.0000000000000000e+00
ITEM: ATOMS type x y z c_outsp[1] c_outsp[2] c_outsp[3] fx fy fz
1 0 0 0 0.0314214 0.988873 -0.145409 0 0 0
1 3 0 0 0.988873 0.0314178 0.145409 0 0 0
ITEM: TIMESTEP
280
ITEM: NUMBER OF ATOMS
2
ITEM: BOX BOUNDS ff ff ff
0.0000000000000000e+00 6.0000000000000000e+00
0.0000000000000000e+00 3.0000000000000000e+00
0.0000000000000000e+00 3.0000000000000000e+00
ITEM: ATOMS type x y z c_outsp[1] c_outsp[2] c_outsp[3] fx fy fz
1 0 0 0 0.0238018 0.997235 -0.0703963 0 0 0
1 3 0 0 0.997235 0.0237982 0.0703964 0 0 0
ITEM: TIMESTEP
290
ITEM: NUMBER OF ATOMS
2
ITEM: BOX BOUNDS ff ff ff
0.0000000000000000e+00 6.0000000000000000e+00
0.0000000000000000e+00 3.0000000000000000e+00
0.0000000000000000e+00 3.0000000000000000e+00
ITEM: ATOMS type x y z c_outsp[1] c_outsp[2] c_outsp[3] fx fy fz
1 0 0 0 0.0220366 0.999743 0.00539765 0 0 0
1 3 0 0 0.999743 0.022033 -0.0053977 0 0 0
ITEM: TIMESTEP
300
ITEM: NUMBER OF ATOMS
2
ITEM: BOX BOUNDS ff ff ff
0.0000000000000000e+00 6.0000000000000000e+00
0.0000000000000000e+00 3.0000000000000000e+00
0.0000000000000000e+00 3.0000000000000000e+00
ITEM: ATOMS type x y z c_outsp[1] c_outsp[2] c_outsp[3] fx fy fz
1 0 0 0 0.026155 0.996366 0.0810613 0 0 0
1 3 0 0 0.996366 0.0261514 -0.0810615 0 0 0
ITEM: TIMESTEP
310
ITEM: NUMBER OF ATOMS
2
ITEM: BOX BOUNDS ff ff ff
0.0000000000000000e+00 6.0000000000000000e+00
0.0000000000000000e+00 3.0000000000000000e+00
0.0000000000000000e+00 3.0000000000000000e+00
ITEM: ATOMS type x y z c_outsp[1] c_outsp[2] c_outsp[3] fx fy fz
1 0 0 0 0.0361152 0.987147 0.155683 0 0 0
1 3 0 0 0.987147 0.0361116 -0.155683 0 0 0
ITEM: TIMESTEP
320
ITEM: NUMBER OF ATOMS
2
ITEM: BOX BOUNDS ff ff ff
0.0000000000000000e+00 6.0000000000000000e+00
0.0000000000000000e+00 3.0000000000000000e+00
0.0000000000000000e+00 3.0000000000000000e+00
ITEM: ATOMS type x y z c_outsp[1] c_outsp[2] c_outsp[3] fx fy fz
1 0 0 0 0.0518048 0.972197 0.22836 0 0 0
1 3 0 0 0.972197 0.0518013 -0.228361 0 0 0
ITEM: TIMESTEP
330
ITEM: NUMBER OF ATOMS
2
ITEM: BOX BOUNDS ff ff ff
0.0000000000000000e+00 6.0000000000000000e+00
0.0000000000000000e+00 3.0000000000000000e+00
0.0000000000000000e+00 3.0000000000000000e+00
ITEM: ATOMS type x y z c_outsp[1] c_outsp[2] c_outsp[3] fx fy fz
1 0 0 0 0.0730421 0.9517 0.298215 0 0 0
1 3 0 0 0.9517 0.0730387 -0.298216 0 0 0
ITEM: TIMESTEP
340
ITEM: NUMBER OF ATOMS
2
ITEM: BOX BOUNDS ff ff ff
0.0000000000000000e+00 6.0000000000000000e+00
0.0000000000000000e+00 3.0000000000000000e+00
0.0000000000000000e+00 3.0000000000000000e+00
ITEM: ATOMS type x y z c_outsp[1] c_outsp[2] c_outsp[3] fx fy fz
1 0 0 0 0.0995775 0.925903 0.3644 0 0 0
1 3 0 0 0.925904 0.0995742 -0.3644 0 0 0
ITEM: TIMESTEP
350
ITEM: NUMBER OF ATOMS
2
ITEM: BOX BOUNDS ff ff ff
0.0000000000000000e+00 6.0000000000000000e+00
0.0000000000000000e+00 3.0000000000000000e+00
0.0000000000000000e+00 3.0000000000000000e+00
ITEM: ATOMS type x y z c_outsp[1] c_outsp[2] c_outsp[3] fx fy fz
1 0 0 0 0.131097 0.895122 0.42611 0 0 0
1 3 0 0 0.895123 0.131094 -0.42611 0 0 0
ITEM: TIMESTEP
360
ITEM: NUMBER OF ATOMS
2
ITEM: BOX BOUNDS ff ff ff
0.0000000000000000e+00 6.0000000000000000e+00
0.0000000000000000e+00 3.0000000000000000e+00
0.0000000000000000e+00 3.0000000000000000e+00
ITEM: ATOMS type x y z c_outsp[1] c_outsp[2] c_outsp[3] fx fy fz
1 0 0 0 0.167225 0.859732 0.482593 0 0 0
1 3 0 0 0.859732 0.167222 -0.482594 0 0 0
ITEM: TIMESTEP
370
ITEM: NUMBER OF ATOMS
2
ITEM: BOX BOUNDS ff ff ff
0.0000000000000000e+00 6.0000000000000000e+00
0.0000000000000000e+00 3.0000000000000000e+00
0.0000000000000000e+00 3.0000000000000000e+00
ITEM: ATOMS type x y z c_outsp[1] c_outsp[2] c_outsp[3] fx fy fz
1 0 0 0 0.207529 0.820165 0.533162 0 0 0
1 3 0 0 0.820165 0.207526 -0.533163 0 0 0
ITEM: TIMESTEP
380
ITEM: NUMBER OF ATOMS
2
ITEM: BOX BOUNDS ff ff ff
0.0000000000000000e+00 6.0000000000000000e+00
0.0000000000000000e+00 3.0000000000000000e+00
0.0000000000000000e+00 3.0000000000000000e+00
ITEM: ATOMS type x y z c_outsp[1] c_outsp[2] c_outsp[3] fx fy fz
1 0 0 0 0.251526 0.776904 0.577195 0 0 0
1 3 0 0 0.776904 0.251524 -0.577196 0 0 0
ITEM: TIMESTEP
390
ITEM: NUMBER OF ATOMS
2
ITEM: BOX BOUNDS ff ff ff
0.0000000000000000e+00 6.0000000000000000e+00
0.0000000000000000e+00 3.0000000000000000e+00
0.0000000000000000e+00 3.0000000000000000e+00
ITEM: ATOMS type x y z c_outsp[1] c_outsp[2] c_outsp[3] fx fy fz
1 0 0 0 0.298686 0.73048 0.614154 0 0 0
1 3 0 0 0.73048 0.298683 -0.614155 0 0 0
ITEM: TIMESTEP
400
ITEM: NUMBER OF ATOMS
2
ITEM: BOX BOUNDS ff ff ff
0.0000000000000000e+00 6.0000000000000000e+00
0.0000000000000000e+00 3.0000000000000000e+00
0.0000000000000000e+00 3.0000000000000000e+00
ITEM: ATOMS type x y z c_outsp[1] c_outsp[2] c_outsp[3] fx fy fz
1 0 0 0 0.348439 0.681463 0.643583 0 0 0
1 3 0 0 0.681463 0.348436 -0.643584 0 0 0
ITEM: TIMESTEP
410
ITEM: NUMBER OF ATOMS
2
ITEM: BOX BOUNDS ff ff ff
0.0000000000000000e+00 6.0000000000000000e+00
0.0000000000000000e+00 3.0000000000000000e+00
0.0000000000000000e+00 3.0000000000000000e+00
ITEM: ATOMS type x y z c_outsp[1] c_outsp[2] c_outsp[3] fx fy fz
1 0 0 0 0.400182 0.630454 0.665118 0 0 0
1 3 0 0 0.630454 0.40018 -0.66512 0 0 0
ITEM: TIMESTEP
420
ITEM: NUMBER OF ATOMS
2
ITEM: BOX BOUNDS ff ff ff
0.0000000000000000e+00 6.0000000000000000e+00
0.0000000000000000e+00 3.0000000000000000e+00
0.0000000000000000e+00 3.0000000000000000e+00
ITEM: ATOMS type x y z c_outsp[1] c_outsp[2] c_outsp[3] fx fy fz
1 0 0 0 0.453288 0.578082 0.678492 0 0 0
1 3 0 0 0.578082 0.453286 -0.678494 0 0 0
ITEM: TIMESTEP
430
ITEM: NUMBER OF ATOMS
2
ITEM: BOX BOUNDS ff ff ff
0.0000000000000000e+00 6.0000000000000000e+00
0.0000000000000000e+00 3.0000000000000000e+00
0.0000000000000000e+00 3.0000000000000000e+00
ITEM: ATOMS type x y z c_outsp[1] c_outsp[2] c_outsp[3] fx fy fz
1 0 0 0 0.507111 0.524992 0.683537 0 0 0
1 3 0 0 0.524992 0.507109 -0.683538 0 0 0
ITEM: TIMESTEP
440
ITEM: NUMBER OF ATOMS
2
ITEM: BOX BOUNDS ff ff ff
0.0000000000000000e+00 6.0000000000000000e+00
0.0000000000000000e+00 3.0000000000000000e+00
0.0000000000000000e+00 3.0000000000000000e+00
ITEM: ATOMS type x y z c_outsp[1] c_outsp[2] c_outsp[3] fx fy fz
1 0 0 0 0.560994 0.471841 0.680185 0 0 0
1 3 0 0 0.471841 0.560993 -0.680186 0 0 0
ITEM: TIMESTEP
450
ITEM: NUMBER OF ATOMS
2
ITEM: BOX BOUNDS ff ff ff
0.0000000000000000e+00 6.0000000000000000e+00
0.0000000000000000e+00 3.0000000000000000e+00
0.0000000000000000e+00 3.0000000000000000e+00
ITEM: ATOMS type x y z c_outsp[1] c_outsp[2] c_outsp[3] fx fy fz
1 0 0 0 0.61428 0.419286 0.668475 0 0 0
1 3 0 0 0.419287 0.614279 -0.668476 0 0 0
ITEM: TIMESTEP
460
ITEM: NUMBER OF ATOMS
2
ITEM: BOX BOUNDS ff ff ff
0.0000000000000000e+00 6.0000000000000000e+00
0.0000000000000000e+00 3.0000000000000000e+00
0.0000000000000000e+00 3.0000000000000000e+00
ITEM: ATOMS type x y z c_outsp[1] c_outsp[2] c_outsp[3] fx fy fz
1 0 0 0 0.666317 0.367981 0.648546 0 0 0
1 3 0 0 0.367981 0.666316 -0.648547 0 0 0
ITEM: TIMESTEP
470
ITEM: NUMBER OF ATOMS
2
ITEM: BOX BOUNDS ff ff ff
0.0000000000000000e+00 6.0000000000000000e+00
0.0000000000000000e+00 3.0000000000000000e+00
0.0000000000000000e+00 3.0000000000000000e+00
ITEM: ATOMS type x y z c_outsp[1] c_outsp[2] c_outsp[3] fx fy fz
1 0 0 0 0.716468 0.318561 0.620639 0 0 0
1 3 0 0 0.318561 0.716466 -0.620641 0 0 0
ITEM: TIMESTEP
480
ITEM: NUMBER OF ATOMS
2
ITEM: BOX BOUNDS ff ff ff
0.0000000000000000e+00 6.0000000000000000e+00
0.0000000000000000e+00 3.0000000000000000e+00
0.0000000000000000e+00 3.0000000000000000e+00
ITEM: ATOMS type x y z c_outsp[1] c_outsp[2] c_outsp[3] fx fy fz
1 0 0 0 0.764115 0.271643 0.585097 0 0 0
1 3 0 0 0.271643 0.764114 -0.585098 0 0 0
ITEM: TIMESTEP
490
ITEM: NUMBER OF ATOMS
2
ITEM: BOX BOUNDS ff ff ff
0.0000000000000000e+00 6.0000000000000000e+00
0.0000000000000000e+00 3.0000000000000000e+00
0.0000000000000000e+00 3.0000000000000000e+00
ITEM: ATOMS type x y z c_outsp[1] c_outsp[2] c_outsp[3] fx fy fz
1 0 0 0 0.808674 0.227813 0.542354 0 0 0
1 3 0 0 0.227813 0.808673 -0.542355 0 0 0
ITEM: TIMESTEP
500
ITEM: NUMBER OF ATOMS
2
ITEM: BOX BOUNDS ff ff ff
0.0000000000000000e+00 6.0000000000000000e+00
0.0000000000000000e+00 3.0000000000000000e+00
0.0000000000000000e+00 3.0000000000000000e+00
ITEM: ATOMS type x y z c_outsp[1] c_outsp[2] c_outsp[3] fx fy fz
1 0 0 0 0.849596 0.18762 0.492935 0 0 0
1 3 0 0 0.18762 0.849596 -0.492936 0 0 0
ITEM: TIMESTEP
510
ITEM: NUMBER OF ATOMS
2
ITEM: BOX BOUNDS ff ff ff
0.0000000000000000e+00 6.0000000000000000e+00
0.0000000000000000e+00 3.0000000000000000e+00
0.0000000000000000e+00 3.0000000000000000e+00
ITEM: ATOMS type x y z c_outsp[1] c_outsp[2] c_outsp[3] fx fy fz
1 0 0 0 0.886376 0.151567 0.437452 0 0 0
1 3 0 0 0.151567 0.886376 -0.437453 0 0 0
ITEM: TIMESTEP
520
ITEM: NUMBER OF ATOMS
2
ITEM: BOX BOUNDS ff ff ff
0.0000000000000000e+00 6.0000000000000000e+00
0.0000000000000000e+00 3.0000000000000000e+00
0.0000000000000000e+00 3.0000000000000000e+00
ITEM: ATOMS type x y z c_outsp[1] c_outsp[2] c_outsp[3] fx fy fz
1 0 0 0 0.918561 0.12011 0.37659 0 0 0
1 3 0 0 0.12011 0.91856 -0.376591 0 0 0
ITEM: TIMESTEP
530
ITEM: NUMBER OF ATOMS
2
ITEM: BOX BOUNDS ff ff ff
0.0000000000000000e+00 6.0000000000000000e+00
0.0000000000000000e+00 3.0000000000000000e+00
0.0000000000000000e+00 3.0000000000000000e+00
ITEM: ATOMS type x y z c_outsp[1] c_outsp[2] c_outsp[3] fx fy fz
1 0 0 0 0.945751 0.0936457 0.311103 0 0 0
1 3 0 0 0.0936457 0.945751 -0.311104 0 0 0
ITEM: TIMESTEP
540
ITEM: NUMBER OF ATOMS
2
ITEM: BOX BOUNDS ff ff ff
0.0000000000000000e+00 6.0000000000000000e+00
0.0000000000000000e+00 3.0000000000000000e+00
0.0000000000000000e+00 3.0000000000000000e+00
ITEM: ATOMS type x y z c_outsp[1] c_outsp[2] c_outsp[3] fx fy fz
1 0 0 0 0.967612 0.0725108 0.241805 0 0 0
1 3 0 0 0.0725108 0.967612 -0.241806 0 0 0
ITEM: TIMESTEP
550
ITEM: NUMBER OF ATOMS
2
ITEM: BOX BOUNDS ff ff ff
0.0000000000000000e+00 6.0000000000000000e+00
0.0000000000000000e+00 3.0000000000000000e+00
0.0000000000000000e+00 3.0000000000000000e+00
ITEM: ATOMS type x y z c_outsp[1] c_outsp[2] c_outsp[3] fx fy fz
1 0 0 0 0.983872 0.0569758 0.169558 0 0 0
1 3 0 0 0.0569758 0.983872 -0.169559 0 0 0
ITEM: TIMESTEP
560
ITEM: NUMBER OF ATOMS
2
ITEM: BOX BOUNDS ff ff ff
0.0000000000000000e+00 6.0000000000000000e+00
0.0000000000000000e+00 3.0000000000000000e+00
0.0000000000000000e+00 3.0000000000000000e+00
ITEM: ATOMS type x y z c_outsp[1] c_outsp[2] c_outsp[3] fx fy fz
1 0 0 0 0.994331 0.0472414 0.095263 0 0 0
1 3 0 0 0.0472414 0.994331 -0.0952632 0 0 0
ITEM: TIMESTEP
570
ITEM: NUMBER OF ATOMS
2
ITEM: BOX BOUNDS ff ff ff
0.0000000000000000e+00 6.0000000000000000e+00
0.0000000000000000e+00 3.0000000000000000e+00
0.0000000000000000e+00 3.0000000000000000e+00
ITEM: ATOMS type x y z c_outsp[1] c_outsp[2] c_outsp[3] fx fy fz
1 0 0 0 0.998859 0.0434366 0.0198479 0 0 0
1 3 0 0 0.0434366 0.998859 -0.019848 0 0 0
ITEM: TIMESTEP
580
ITEM: NUMBER OF ATOMS
2
ITEM: BOX BOUNDS ff ff ff
0.0000000000000000e+00 6.0000000000000000e+00
0.0000000000000000e+00 3.0000000000000000e+00
0.0000000000000000e+00 3.0000000000000000e+00
ITEM: ATOMS type x y z c_outsp[1] c_outsp[2] c_outsp[3] fx fy fz
1 0 0 0 0.997403 0.0456161 -0.0557434 0 0 0
1 3 0 0 0.0456161 0.997403 0.0557435 0 0 0
ITEM: TIMESTEP
590
ITEM: NUMBER OF ATOMS
2
ITEM: BOX BOUNDS ff ff ff
0.0000000000000000e+00 6.0000000000000000e+00
0.0000000000000000e+00 3.0000000000000000e+00
0.0000000000000000e+00 3.0000000000000000e+00
ITEM: ATOMS type x y z c_outsp[1] c_outsp[2] c_outsp[3] fx fy fz
1 0 0 0 0.989981 0.0537596 -0.130563 0 0 0
1 3 0 0 0.0537596 0.989981 0.130563 0 0 0
ITEM: TIMESTEP
600
ITEM: NUMBER OF ATOMS
2
ITEM: BOX BOUNDS ff ff ff
0.0000000000000000e+00 6.0000000000000000e+00
0.0000000000000000e+00 3.0000000000000000e+00
0.0000000000000000e+00 3.0000000000000000e+00
ITEM: ATOMS type x y z c_outsp[1] c_outsp[2] c_outsp[3] fx fy fz
1 0 0 0 0.976691 0.0677718 -0.203671 0 0 0
1 3 0 0 0.0677718 0.976691 0.203672 0 0 0
ITEM: TIMESTEP
610
ITEM: NUMBER OF ATOMS
2
ITEM: BOX BOUNDS ff ff ff
0.0000000000000000e+00 6.0000000000000000e+00
0.0000000000000000e+00 3.0000000000000000e+00
0.0000000000000000e+00 3.0000000000000000e+00
ITEM: ATOMS type x y z c_outsp[1] c_outsp[2] c_outsp[3] fx fy fz
1 0 0 0 0.9577 0.0874836 -0.274149 0 0 0
1 3 0 0 0.0874836 0.9577 0.274149 0 0 0
ITEM: TIMESTEP
620
ITEM: NUMBER OF ATOMS
2
ITEM: BOX BOUNDS ff ff ff
0.0000000000000000e+00 6.0000000000000000e+00
0.0000000000000000e+00 3.0000000000000000e+00
0.0000000000000000e+00 3.0000000000000000e+00
ITEM: ATOMS type x y z c_outsp[1] c_outsp[2] c_outsp[3] fx fy fz
1 0 0 0 0.93325 0.112654 -0.341106 0 0 0
1 3 0 0 0.112654 0.93325 0.341107 0 0 0
ITEM: TIMESTEP
630
ITEM: NUMBER OF ATOMS
2
ITEM: BOX BOUNDS ff ff ff
0.0000000000000000e+00 6.0000000000000000e+00
0.0000000000000000e+00 3.0000000000000000e+00
0.0000000000000000e+00 3.0000000000000000e+00
ITEM: ATOMS type x y z c_outsp[1] c_outsp[2] c_outsp[3] fx fy fz
1 0 0 0 0.903652 0.142971 -0.403698 0 0 0
1 3 0 0 0.142971 0.903652 0.403699 0 0 0
ITEM: TIMESTEP
640
ITEM: NUMBER OF ATOMS
2
ITEM: BOX BOUNDS ff ff ff
0.0000000000000000e+00 6.0000000000000000e+00
0.0000000000000000e+00 3.0000000000000000e+00
0.0000000000000000e+00 3.0000000000000000e+00
ITEM: ATOMS type x y z c_outsp[1] c_outsp[2] c_outsp[3] fx fy fz
1 0 0 0 0.869282 0.17806 -0.461133 0 0 0
1 3 0 0 0.17806 0.869281 0.461134 0 0 0
ITEM: TIMESTEP
650
ITEM: NUMBER OF ATOMS
2
ITEM: BOX BOUNDS ff ff ff
0.0000000000000000e+00 6.0000000000000000e+00
0.0000000000000000e+00 3.0000000000000000e+00
0.0000000000000000e+00 3.0000000000000000e+00
ITEM: ATOMS type x y z c_outsp[1] c_outsp[2] c_outsp[3] fx fy fz
1 0 0 0 0.830577 0.217484 -0.512682 0 0 0
1 3 0 0 0.217484 0.830576 0.512683 0 0 0
ITEM: TIMESTEP
660
ITEM: NUMBER OF ATOMS
2
ITEM: BOX BOUNDS ff ff ff
0.0000000000000000e+00 6.0000000000000000e+00
0.0000000000000000e+00 3.0000000000000000e+00
0.0000000000000000e+00 3.0000000000000000e+00
ITEM: ATOMS type x y z c_outsp[1] c_outsp[2] c_outsp[3] fx fy fz
1 0 0 0 0.78803 0.260748 -0.557691 0 0 0
1 3 0 0 0.260748 0.788029 0.557692 0 0 0
ITEM: TIMESTEP
670
ITEM: NUMBER OF ATOMS
2
ITEM: BOX BOUNDS ff ff ff
0.0000000000000000e+00 6.0000000000000000e+00
0.0000000000000000e+00 3.0000000000000000e+00
0.0000000000000000e+00 3.0000000000000000e+00
ITEM: ATOMS type x y z c_outsp[1] c_outsp[2] c_outsp[3] fx fy fz
1 0 0 0 0.742183 0.307312 -0.595587 0 0 0
1 3 0 0 0.307312 0.742182 0.595588 0 0 0
ITEM: TIMESTEP
680
ITEM: NUMBER OF ATOMS
2
ITEM: BOX BOUNDS ff ff ff
0.0000000000000000e+00 6.0000000000000000e+00
0.0000000000000000e+00 3.0000000000000000e+00
0.0000000000000000e+00 3.0000000000000000e+00
ITEM: ATOMS type x y z c_outsp[1] c_outsp[2] c_outsp[3] fx fy fz
1 0 0 0 0.693622 0.356589 -0.625886 0 0 0
1 3 0 0 0.356589 0.693621 0.625887 0 0 0
ITEM: TIMESTEP
690
ITEM: NUMBER OF ATOMS
2
ITEM: BOX BOUNDS ff ff ff
0.0000000000000000e+00 6.0000000000000000e+00
0.0000000000000000e+00 3.0000000000000000e+00
0.0000000000000000e+00 3.0000000000000000e+00
ITEM: ATOMS type x y z c_outsp[1] c_outsp[2] c_outsp[3] fx fy fz
1 0 0 0 0.642968 0.407959 -0.648199 0 0 0
1 3 0 0 0.407959 0.642966 0.648201 0 0 0
ITEM: TIMESTEP
700
ITEM: NUMBER OF ATOMS
2
ITEM: BOX BOUNDS ff ff ff
0.0000000000000000e+00 6.0000000000000000e+00
0.0000000000000000e+00 3.0000000000000000e+00
0.0000000000000000e+00 3.0000000000000000e+00
ITEM: ATOMS type x y z c_outsp[1] c_outsp[2] c_outsp[3] fx fy fz
1 0 0 0 0.590868 0.460772 -0.662241 0 0 0
1 3 0 0 0.460772 0.590867 0.662242 0 0 0
ITEM: TIMESTEP
710
ITEM: NUMBER OF ATOMS
2
ITEM: BOX BOUNDS ff ff ff
0.0000000000000000e+00 6.0000000000000000e+00
0.0000000000000000e+00 3.0000000000000000e+00
0.0000000000000000e+00 3.0000000000000000e+00
ITEM: ATOMS type x y z c_outsp[1] c_outsp[2] c_outsp[3] fx fy fz
1 0 0 0 0.537993 0.514362 -0.667829 0 0 0
1 3 0 0 0.514362 0.537991 0.66783 0 0 0
ITEM: TIMESTEP
720
ITEM: NUMBER OF ATOMS
2
ITEM: BOX BOUNDS ff ff ff
0.0000000000000000e+00 6.0000000000000000e+00
0.0000000000000000e+00 3.0000000000000000e+00
0.0000000000000000e+00 3.0000000000000000e+00
ITEM: ATOMS type x y z c_outsp[1] c_outsp[2] c_outsp[3] fx fy fz
1 0 0 0 0.485019 0.568049 -0.664889 0 0 0
1 3 0 0 0.568049 0.485017 0.66489 0 0 0
ITEM: TIMESTEP
730
ITEM: NUMBER OF ATOMS
2
ITEM: BOX BOUNDS ff ff ff
0.0000000000000000e+00 6.0000000000000000e+00
0.0000000000000000e+00 3.0000000000000000e+00
0.0000000000000000e+00 3.0000000000000000e+00
ITEM: ATOMS type x y z c_outsp[1] c_outsp[2] c_outsp[3] fx fy fz
1 0 0 0 0.43263 0.621151 -0.653455 0 0 0
1 3 0 0 0.621151 0.432628 0.653456 0 0 0
ITEM: TIMESTEP
740
ITEM: NUMBER OF ATOMS
2
ITEM: BOX BOUNDS ff ff ff
0.0000000000000000e+00 6.0000000000000000e+00
0.0000000000000000e+00 3.0000000000000000e+00
0.0000000000000000e+00 3.0000000000000000e+00
ITEM: ATOMS type x y z c_outsp[1] c_outsp[2] c_outsp[3] fx fy fz
1 0 0 0 0.3815 0.672993 -0.633671 0 0 0
1 3 0 0 0.672993 0.381497 0.633672 0 0 0
ITEM: TIMESTEP
750
ITEM: NUMBER OF ATOMS
2
ITEM: BOX BOUNDS ff ff ff
0.0000000000000000e+00 6.0000000000000000e+00
0.0000000000000000e+00 3.0000000000000000e+00
0.0000000000000000e+00 3.0000000000000000e+00
ITEM: ATOMS type x y z c_outsp[1] c_outsp[2] c_outsp[3] fx fy fz
1 0 0 0 0.332289 0.722914 -0.605788 0 0 0
1 3 0 0 0.722914 0.332287 0.605789 0 0 0
ITEM: TIMESTEP
760
ITEM: NUMBER OF ATOMS
2
ITEM: BOX BOUNDS ff ff ff
0.0000000000000000e+00 6.0000000000000000e+00
0.0000000000000000e+00 3.0000000000000000e+00
0.0000000000000000e+00 3.0000000000000000e+00
ITEM: ATOMS type x y z c_outsp[1] c_outsp[2] c_outsp[3] fx fy fz
1 0 0 0 0.285635 0.770279 -0.570161 0 0 0
1 3 0 0 0.770279 0.285632 0.570162 0 0 0
ITEM: TIMESTEP
770
ITEM: NUMBER OF ATOMS
2
ITEM: BOX BOUNDS ff ff ff
0.0000000000000000e+00 6.0000000000000000e+00
0.0000000000000000e+00 3.0000000000000000e+00
0.0000000000000000e+00 3.0000000000000000e+00
ITEM: ATOMS type x y z c_outsp[1] c_outsp[2] c_outsp[3] fx fy fz
1 0 0 0 0.242141 0.814482 -0.527245 0 0 0
1 3 0 0 0.814482 0.242139 0.527246 0 0 0
ITEM: TIMESTEP
780
ITEM: NUMBER OF ATOMS
2
ITEM: BOX BOUNDS ff ff ff
0.0000000000000000e+00 6.0000000000000000e+00
0.0000000000000000e+00 3.0000000000000000e+00
0.0000000000000000e+00 3.0000000000000000e+00
ITEM: ATOMS type x y z c_outsp[1] c_outsp[2] c_outsp[3] fx fy fz
1 0 0 0 0.202374 0.854958 -0.47759 0 0 0
1 3 0 0 0.854958 0.202371 0.477591 0 0 0
ITEM: TIMESTEP
790
ITEM: NUMBER OF ATOMS
2
ITEM: BOX BOUNDS ff ff ff
0.0000000000000000e+00 6.0000000000000000e+00
0.0000000000000000e+00 3.0000000000000000e+00
0.0000000000000000e+00 3.0000000000000000e+00
ITEM: ATOMS type x y z c_outsp[1] c_outsp[2] c_outsp[3] fx fy fz
1 0 0 0 0.166852 0.891189 -0.421833 0 0 0
1 3 0 0 0.891189 0.166848 0.421834 0 0 0
ITEM: TIMESTEP
800
ITEM: NUMBER OF ATOMS
2
ITEM: BOX BOUNDS ff ff ff
0.0000000000000000e+00 6.0000000000000000e+00
0.0000000000000000e+00 3.0000000000000000e+00
0.0000000000000000e+00 3.0000000000000000e+00
ITEM: ATOMS type x y z c_outsp[1] c_outsp[2] c_outsp[3] fx fy fz
1 0 0 0 0.136037 0.92271 -0.360693 0 0 0
1 3 0 0 0.92271 0.136034 0.360694 0 0 0
ITEM: TIMESTEP
810
ITEM: NUMBER OF ATOMS
2
ITEM: BOX BOUNDS ff ff ff
0.0000000000000000e+00 6.0000000000000000e+00
0.0000000000000000e+00 3.0000000000000000e+00
0.0000000000000000e+00 3.0000000000000000e+00
ITEM: ATOMS type x y z c_outsp[1] c_outsp[2] c_outsp[3] fx fy fz
1 0 0 0 0.110336 0.949118 -0.294958 0 0 0
1 3 0 0 0.949119 0.110332 0.294958 0 0 0
ITEM: TIMESTEP
820
ITEM: NUMBER OF ATOMS
2
ITEM: BOX BOUNDS ff ff ff
0.0000000000000000e+00 6.0000000000000000e+00
0.0000000000000000e+00 3.0000000000000000e+00
0.0000000000000000e+00 3.0000000000000000e+00
ITEM: ATOMS type x y z c_outsp[1] c_outsp[2] c_outsp[3] fx fy fz
1 0 0 0 0.0900854 0.970075 -0.225476 0 0 0
1 3 0 0 0.970075 0.0900819 0.225476 0 0 0
ITEM: TIMESTEP
830
ITEM: NUMBER OF ATOMS
2
ITEM: BOX BOUNDS ff ff ff
0.0000000000000000e+00 6.0000000000000000e+00
0.0000000000000000e+00 3.0000000000000000e+00
0.0000000000000000e+00 3.0000000000000000e+00
ITEM: ATOMS type x y z c_outsp[1] c_outsp[2] c_outsp[3] fx fy fz
1 0 0 0 0.0755544 0.985311 -0.153146 0 0 0
1 3 0 0 0.985311 0.0755509 0.153146 0 0 0
ITEM: TIMESTEP
840
ITEM: NUMBER OF ATOMS
2
ITEM: BOX BOUNDS ff ff ff
0.0000000000000000e+00 6.0000000000000000e+00
0.0000000000000000e+00 3.0000000000000000e+00
0.0000000000000000e+00 3.0000000000000000e+00