LAMMPS (17 Feb 2022)
# fcc cobalt in a 3d periodic box

clear
units		metal
atom_style 	spin

dimension 	3
boundary 	p p p

# necessary for the serial algorithm (sametag)
atom_modify 	map array

lattice fcc 	3.54
Lattice spacing in x,y,z = 3.54 3.54 3.54
region box 	block 0.0 5.0 0.0 5.0 0.0 5.0
create_box 	1 box
Created orthogonal box = (0 0 0) to (17.7 17.7 17.7)
  1 by 1 by 1 MPI processor grid
create_atoms 	1 box
Created 500 atoms
  using lattice units in orthogonal box = (0 0 0) to (17.7 17.7 17.7)
  create_atoms CPU = 0.001 seconds

# setting mass, mag. moments, and interactions for fcc cobalt

mass		1 58.93

#set 		group all spin/random 31 1.72
set 		group all spin 1.72 0.0 0.0 1.0
Setting atom values ...
  500 settings made for spin
velocity 	all create 100 4928459 rot yes dist gaussian

pair_style 	hybrid/overlay eam/alloy spin/exchange 4.0
ERROR: Unrecognized pair style 'eam/alloy' is part of the MANYBODY package which is not enabled in this LAMMPS binary. (../force.cpp:279)
Last command: pair_style 	hybrid/overlay eam/alloy spin/exchange 4.0
